# vtk DataFile Version 3.1
this is my kmeans data with solution
ASCII
DATASET UNSTRUCTURED_GRID
POINTS 100 FLOAT
0.267026 0.137669 0.000000
0.215853 -0.234036 0.000000
0.227785 0.121623 0.000000
0.224896 -0.482221 0.000000
0.191622 0.277438 0.000000
0.203149 0.036188 0.000000
0.263424 -0.213086 0.000000
0.238059 -0.268415 0.000000
0.228226 0.075150 0.000000
0.203742 0.103085 0.000000
0.266880 0.245887 0.000000
0.247337 -0.199049 0.000000
0.227837 -0.245969 0.000000
0.312577 0.158822 0.000000
0.272920 -0.092451 0.000000
0.187003 0.094471 0.000000
0.240768 0.033867 0.000000
0.244689 0.110047 0.000000
0.285130 -0.525427 0.000000
0.243833 -1.030900 0.000000
0.236955 -0.216336 0.000000
0.228140 -0.063440 0.000000
0.217080 -0.177499 0.000000
0.248018 -0.226822 0.000000
0.255931 -0.041381 0.000000
0.234113 0.140347 0.000000
0.241904 0.072421 0.000000
0.234597 0.020199 0.000000
0.255865 -0.003966 0.000000
0.242763 0.375579 0.000000
0.194856 0.471991 0.000000
0.302529 -0.081744 0.000000
0.278264 -0.525474 0.000000
-0.019867 -0.676895 0.000000
-0.022981 -0.616967 0.000000
-0.068307 -0.744397 0.000000
-0.101245 -0.501753 0.000000
0.011127 -0.277938 0.000000
-0.041492 -0.719782 0.000000
-0.077365 -0.407399 0.000000
0.071121 -0.820604 0.000000
0.001705 -0.170699 0.000000
0.000652 -0.587523 0.000000
-0.038772 -0.429080 0.000000
0.069965 -0.764819 0.000000
-0.063625 -0.561537 0.000000
-0.089723 -0.295658 0.000000
0.025889 -0.576545 0.000000
-0.101368 -0.738932 0.000000
0.081473 -0.548282 0.000000
0.031981 -0.357340 0.000000
0.079645 -0.671857 0.000000
0.102832 -0.495682 0.000000
0.024930 -0.412390 0.000000
-0.073983 -0.734654 0.000000
-0.088199 -0.410762 0.000000
0.006134 -0.247804 0.000000
-0.104825 -0.599427 0.000000
0.159124 -0.973206 0.000000
-0.069403 -1.030367 0.000000
-0.049861 -0.168187 0.000000
-0.048802 -0.445737 0.000000
-0.068056 -0.214635 0.000000
-0.062424 -0.523742 0.000000
0.078402 -0.998158 0.000000
0.016253 -0.245819 0.000000
0.159234 0.841673 0.000000
-0.022211 0.193361 0.000000
0.025057 0.642383 0.000000
-0.073569 0.371170 0.000000
-0.013119 0.766204 0.000000
0.073204 0.315096 0.000000
0.104170 0.249067 0.000000
-0.074293 0.817004 0.000000
-0.061873 1.068135 0.000000
-0.067467 0.415517 0.000000
-0.068463 0.758448 0.000000
0.081810 0.595716 0.000000
-0.057109 0.703753 0.000000
-0.108156 -0.010268 0.000000
-0.017476 0.296032 0.000000
-0.011654 0.910452 0.000000
-0.091485 0.603578 0.000000
0.109278 -0.013969 0.000000
-0.097217 0.528282 0.000000
0.050712 0.671956 0.000000
0.119272 0.521333 0.000000
-0.013450 0.476616 0.000000
0.058749 0.051358 0.000000
0.118193 0.141651 0.000000
-0.018915 0.593111 0.000000
0.020907 0.269093 0.000000
0.108201 0.437204 0.000000
0.021269 0.930941 0.000000
0.030082 0.321175 0.000000
-0.047974 0.063919 0.000000
-0.027912 0.237453 0.000000
0.108839 0.953739 0.000000
0.036560 0.453708 0.000000
0.011061 -0.184842 0.000000

POINT_DATA 100
SCALARS domain float 1
LOOKUP_TABLE default
0.000000
0.000000
0.000000
0.000000
0.000000
0.000000
0.000000
0.000000
0.000000
0.000000
0.000000
0.000000
0.000000
0.000000
0.000000
0.000000
0.000000
0.000000
0.000000
0.000000
0.000000
0.000000
0.000000
0.000000
0.000000
0.000000
0.000000
0.000000
0.000000
0.000000
0.000000
0.000000
0.000000
0.000000
1.000000
1.000000
1.000000
1.000000
1.000000
1.000000
1.000000
1.000000
1.000000
1.000000
1.000000
1.000000
1.000000
1.000000
1.000000
1.000000
1.000000
1.000000
1.000000
1.000000
1.000000
1.000000
1.000000
1.000000
1.000000
1.000000
1.000000
1.000000
1.000000
1.000000
1.000000
1.000000
1.000000
2.000000
2.000000
2.000000
2.000000
2.000000
2.000000
2.000000
2.000000
2.000000
2.000000
2.000000
2.000000
2.000000
2.000000
2.000000
2.000000
2.000000
2.000000
2.000000
2.000000
2.000000
2.000000
2.000000
2.000000
2.000000
2.000000
2.000000
2.000000
2.000000
2.000000
2.000000
2.000000
2.000000
SCALARS gamma_0 float 1
LOOKUP_TABLE default
0.999983
1.000017
1.000023
0.999976
0.999965
1.000053
0.999978
1.000009
0.999975
1.000063
0.999907
1.000068
0.999991
0.999962
1.000034
1.000014
0.999961
0.994569
0.983070
0.972973
0.990646
0.999041
1.000016
0.999997
1.000008
0.999968
1.000022
1.000018
0.999976
0.993807
0.991249
1.000014
0.997020
0.984915
0.000000
0.000000
0.000000
0.000000
0.000000
0.000000
0.000000
0.000000
0.000000
0.000000
0.000000
0.000000
0.000000
0.000000
0.000000
0.001490
0.017101
0.025851
0.009540
0.000901
0.000000
0.000000
0.000000
0.000000
0.000000
0.000000
0.000000
0.000457
0.004625
0.000000
0.000000
0.005519
0.000000
0.000000
0.000000
0.000000
0.000000
0.000000
0.000000
0.000000
0.000000
0.000000
0.000000
0.000000
0.000000
0.000000
0.000000
0.000000
0.000000
0.003918
0.000000
0.000905
0.000000
0.000000
0.000000
0.000000
0.000000
0.000000
0.000000
0.000000
0.000000
0.005741
0.004134
0.000000
0.002930
0.009613
SCALARS gamma_1 float 1
LOOKUP_TABLE default
0.996103
0.999990
1.000084
0.999914
0.998893
0.999993
1.000031
0.999954
1.000042
0.999990
0.999972
1.000024
1.000009
0.999965
1.000037
0.999973
0.998846
0.994788
0.986162
0.966171
0.987395
0.998027
1.000018
0.999999
1.000015
0.999989
0.999976
1.000051
0.999951
0.996183
0.997355
0.999983
0.989646
0.987979
0.000000
0.000000
0.000000
0.001131
0.000000
0.000000
0.000000
0.000000
0.000000
0.000000
0.000000
0.000000
0.000000
0.000000
0.000000
0.000000
0.005267
0.013835
0.028248
0.012713
0.000000
0.000000
0.000000
0.000000
0.000000
0.000000
0.000000
0.000000
0.003900
0.002574
0.000000
0.001882
0.000000
0.003870
0.000000
0.000000
0.000000
0.000000
0.000000
0.000000
0.000000
0.000000
0.000000
0.000000
0.000000
0.000000
0.000000
0.000000
0.000000
0.001145
0.000000
0.000000
0.005475
0.000000
0.001921
0.000000
0.000000
0.000000
0.000000
0.000000
0.000000
0.000000
0.000000
0.000000
0.000000
0.008555
SCALARS gamma_2 float 1
LOOKUP_TABLE default
0.999929
1.000112
0.999969
0.997756
0.999391
1.000049
0.999966
1.000014
0.999977
1.000048
0.999941
1.000034
1.000001
0.999972
1.000005
0.999904
1.000168
0.999802
0.979629
0.955980
0.979475
0.990905
0.999614
1.000016
1.000047
0.999952
1.000028
0.999956
1.000079
1.000005
0.999844
1.000105
0.000000
0.000000
0.000000
0.000000
0.000000
0.002249
0.000000
0.000000
0.000000
0.000000
0.000000
0.000000
0.000000
0.000000
0.000000
0.000000
0.000000
0.000000
0.000000
0.000000
0.013543
0.022497
0.000000
0.000000
0.000305
0.000000
0.000000
0.000000
0.000000
0.000000
0.000000
0.000000
0.000000
0.000000
0.000000
0.011967
0.000000
0.000000
0.000000
0.000000
0.000575
0.000000
0.000000
0.000000
0.000000
0.000000
0.000000
0.000000
0.000000
0.000000
0.000000
0.000080
0.000000
0.000000
0.006932
0.021401
0.020585
0.009145
0.000000
0.000000
0.000000
0.000000
0.000000
0.000000
0.000000
0.000000
0.000000
0.000000
SCALARS gamma_max_id float 1
LOOKUP_TABLE default
0.000000
2.000000
1.000000
0.000000
0.000000
0.000000
1.000000
2.000000
1.000000
0.000000
1.000000
0.000000
1.000000
2.000000
1.000000
0.000000
2.000000
2.000000
1.000000
0.000000
0.000000
0.000000
1.000000
2.000000
2.000000
1.000000
2.000000
1.000000
2.000000
2.000000
2.000000
2.000000
0.000000
1.000000
0.000000
0.000000
0.000000
2.000000
0.000000
0.000000
0.000000
0.000000
0.000000
0.000000
0.000000
0.000000
0.000000
0.000000
0.000000
0.000000
0.000000
0.000000
1.000000
2.000000
0.000000
0.000000
2.000000
0.000000
0.000000
0.000000
0.000000
0.000000
0.000000
1.000000
0.000000
0.000000
0.000000
2.000000
0.000000
0.000000
0.000000
0.000000
2.000000
0.000000
0.000000
0.000000
0.000000
0.000000
0.000000
0.000000
0.000000
0.000000
0.000000
0.000000
0.000000
0.000000
2.000000
2.000000
2.000000
2.000000
0.000000
0.000000
0.000000
0.000000
0.000000
0.000000
0.000000
0.000000
0.000000
0.000000
