# vtk DataFile Version 3.1
this is my kmeans data with solution
ASCII
DATASET UNSTRUCTURED_GRID
POINTS 1002 FLOAT
0.267026 0.137669 0.000000
0.215853 -0.234036 0.000000
0.227785 0.121623 0.000000
0.224896 -0.482221 0.000000
0.191622 0.277438 0.000000
0.203149 0.036188 0.000000
0.263424 -0.213086 0.000000
0.238059 -0.268415 0.000000
0.228226 0.075150 0.000000
0.203742 0.103085 0.000000
0.266880 0.245887 0.000000
0.247337 -0.199049 0.000000
0.227837 -0.245969 0.000000
0.312577 0.158822 0.000000
0.272920 -0.092451 0.000000
0.187003 0.094471 0.000000
0.240768 0.033867 0.000000
0.244689 0.110047 0.000000
0.285130 -0.525427 0.000000
0.243833 -1.030900 0.000000
0.236955 -0.216336 0.000000
0.228140 -0.063440 0.000000
0.217080 -0.177499 0.000000
0.248018 -0.226822 0.000000
0.255931 -0.041381 0.000000
0.234113 0.140347 0.000000
0.241904 0.072421 0.000000
0.234597 0.020199 0.000000
0.255865 -0.003966 0.000000
0.242763 0.375579 0.000000
0.194856 0.471991 0.000000
0.302529 -0.081744 0.000000
0.278264 -0.525474 0.000000
0.241115 -0.250167 0.000000
0.237632 0.455914 0.000000
0.281890 -0.113617 0.000000
0.209539 -0.678312 0.000000
0.214494 0.093750 0.000000
0.245405 -0.231504 0.000000
0.247530 0.206843 0.000000
0.214937 0.267493 0.000000
0.230167 -0.415675 0.000000
0.256015 -0.547107 0.000000
0.255434 -0.177585 0.000000
0.226520 -0.477018 0.000000
0.244947 -0.116586 0.000000
0.255827 -0.099731 0.000000
0.286881 -0.282742 0.000000
0.294956 -0.123485 0.000000
0.228449 0.364213 0.000000
0.273595 0.041593 0.000000
0.257113 0.246573 0.000000
0.256401 -0.481191 0.000000
0.292907 -0.184802 0.000000
0.273255 -0.283786 0.000000
0.266320 0.138003 0.000000
0.265242 -0.189177 0.000000
0.304543 0.124329 0.000000
0.292080 -0.138891 0.000000
0.205869 0.403864 0.000000
0.287542 -0.236664 0.000000
0.245734 -0.109737 0.000000
0.242575 -0.517205 0.000000
0.214879 0.231218 0.000000
0.270867 0.432741 0.000000
0.297686 -0.209423 0.000000
0.271271 0.030877 0.000000
0.263919 -0.103244 0.000000
0.268592 -0.530469 0.000000
0.237355 0.585497 0.000000
0.295320 0.109975 0.000000
0.277657 -0.155570 0.000000
0.276152 0.619634 0.000000
0.172187 -0.104238 0.000000
0.253940 -0.166176 0.000000
0.255216 -0.681459 0.000000
0.298049 -0.091021 0.000000
0.217525 0.123501 0.000000
0.297362 0.121763 0.000000
0.204571 0.415190 0.000000
0.231391 -0.121196 0.000000
0.225445 0.125507 0.000000
0.207997 0.119942 0.000000
0.226519 0.151491 0.000000
0.263528 0.204339 0.000000
0.292900 -0.227851 0.000000
0.267700 0.109586 0.000000
0.301049 0.326882 0.000000
0.257050 -0.243423 0.000000
0.213214 0.232269 0.000000
0.208424 -0.039516 0.000000
0.246420 0.191294 0.000000
0.224339 -0.258802 0.000000
0.270725 0.461290 0.000000
0.207780 -0.202259 0.000000
0.280479 -0.271222 0.000000
0.263851 -0.128054 0.000000
0.254725 -0.267783 0.000000
0.230678 -0.211780 0.000000
0.233288 -0.115662 0.000000
0.290501 -0.383860 0.000000
0.288048 -0.038295 0.000000
0.197476 0.639855 0.000000
0.250613 0.124442 0.000000
0.242891 -0.168686 0.000000
0.246011 -0.458066 0.000000
0.259640 -0.189041 0.000000
0.247833 -0.051754 0.000000
0.247224 -0.345054 0.000000
0.297499 0.426543 0.000000
0.225106 0.108417 0.000000
0.248820 0.002151 0.000000
0.239892 0.256328 0.000000
0.236277 -0.196128 0.000000
0.180596 0.296662 0.000000
0.247191 -0.237760 0.000000
0.253075 -0.273341 0.000000
0.239842 0.490876 0.000000
0.254103 -0.159787 0.000000
0.242420 0.378143 0.000000
0.265895 0.322777 0.000000
0.247395 -0.053713 0.000000
0.252065 0.004381 0.000000
0.221169 0.087795 0.000000
0.255209 0.540053 0.000000
0.286118 0.195106 0.000000
0.207449 -0.200651 0.000000
0.289797 -0.037137 0.000000
0.269822 -0.620169 0.000000
0.269700 -0.405498 0.000000
0.267571 -0.150626 0.000000
0.211815 -0.123871 0.000000
0.244627 0.458234 0.000000
0.262033 -0.585453 0.000000
0.243155 0.085947 0.000000
0.238800 -0.025107 0.000000
0.284087 0.191346 0.000000
0.228671 -0.049703 0.000000
0.236239 -0.073673 0.000000
0.321601 -0.629737 0.000000
0.196006 -0.209090 0.000000
0.168963 0.090733 0.000000
0.233450 -0.014749 0.000000
0.285444 0.019704 0.000000
0.271618 0.168710 0.000000
0.193116 -0.178246 0.000000
0.175996 0.660130 0.000000
0.241381 -0.115130 0.000000
0.291691 -0.194095 0.000000
0.241912 -0.325387 0.000000
0.223972 0.010258 0.000000
0.260383 -0.213957 0.000000
0.209953 0.104038 0.000000
0.239004 -0.276858 0.000000
0.244943 0.071729 0.000000
0.274465 -0.333596 0.000000
0.183209 -0.167175 0.000000
0.277754 0.062901 0.000000
0.253256 -0.099343 0.000000
0.243634 0.070795 0.000000
0.298651 -0.485746 0.000000
0.306415 -0.417728 0.000000
0.274412 0.020208 0.000000
0.283812 -0.209112 0.000000
0.325037 -0.112752 0.000000
0.255125 0.438766 0.000000
0.274295 -0.260671 0.000000
0.260058 0.029314 0.000000
0.225987 0.148719 0.000000
0.215502 0.382837 0.000000
0.230353 0.496384 0.000000
0.238851 -0.191330 0.000000
0.191567 -0.191507 0.000000
0.290177 -0.283512 0.000000
0.249227 -0.293850 0.000000
0.248948 0.249984 0.000000
0.267835 0.402742 0.000000
0.263401 -0.125636 0.000000
0.243723 -0.199723 0.000000
0.285559 0.433110 0.000000
0.209025 0.242122 0.000000
0.268272 0.244301 0.000000
0.226911 0.116754 0.000000
0.234333 -0.135362 0.000000
0.304177 -0.263766 0.000000
0.177321 -0.505532 0.000000
0.257539 0.220555 0.000000
0.271102 0.128204 0.000000
0.301184 -0.116926 0.000000
0.327321 0.552904 0.000000
0.247548 0.497011 0.000000
0.235557 0.258834 0.000000
0.215946 -0.023042 0.000000
0.235938 -0.166311 0.000000
0.271842 0.004281 0.000000
0.292350 -0.349951 0.000000
0.269182 0.267439 0.000000
0.247423 -0.084021 0.000000
0.254986 0.411505 0.000000
0.226391 0.142241 0.000000
0.244681 0.178134 0.000000
0.246355 0.027702 0.000000
0.244645 0.365078 0.000000
0.251884 0.362996 0.000000
0.227062 0.039963 0.000000
0.277301 -0.093466 0.000000
0.232971 -0.482867 0.000000
0.262043 0.225353 0.000000
0.228520 0.013997 0.000000
0.199643 0.280636 0.000000
0.218776 -0.195600 0.000000
0.273050 -0.144374 0.000000
0.220272 0.425527 0.000000
0.232304 0.398559 0.000000
0.287536 -0.177724 0.000000
0.245682 -0.510052 0.000000
0.248669 -0.225851 0.000000
0.246787 -0.165955 0.000000
0.246079 -0.035268 0.000000
0.249370 0.806473 0.000000
0.245626 0.129460 0.000000
0.258907 -0.190740 0.000000
0.140105 0.158145 0.000000
0.277401 0.936295 0.000000
0.276303 -0.782583 0.000000
0.207196 0.110879 0.000000
0.278724 -0.128741 0.000000
0.270731 0.222757 0.000000
0.275505 -0.025442 0.000000
0.271588 -0.268246 0.000000
0.280834 0.628602 0.000000
0.277161 0.326660 0.000000
0.240050 -0.700306 0.000000
0.306961 -0.259960 0.000000
0.262445 -0.262430 0.000000
0.231630 0.081876 0.000000
0.238096 0.109212 0.000000
0.267575 0.165518 0.000000
0.252271 0.625642 0.000000
0.262883 -0.248971 0.000000
0.259187 -0.030693 0.000000
0.226099 0.100760 0.000000
0.213708 -0.543198 0.000000
0.271578 0.347766 0.000000
0.295044 0.040967 0.000000
0.244091 -0.020953 0.000000
0.234421 -0.135397 0.000000
0.287507 0.309913 0.000000
0.222686 -0.094476 0.000000
0.246360 -0.084897 0.000000
0.254809 0.301996 0.000000
0.234101 0.004185 0.000000
0.220109 0.311925 0.000000
0.207251 0.093252 0.000000
0.290766 -0.158578 0.000000
0.236157 -0.223262 0.000000
0.191319 -0.310573 0.000000
0.251915 -0.142472 0.000000
0.238302 -0.198896 0.000000
0.301699 -0.522467 0.000000
0.295602 -0.140787 0.000000
0.273150 -0.241384 0.000000
0.279400 0.283913 0.000000
0.324742 -0.490143 0.000000
0.296917 0.069319 0.000000
0.290441 0.127762 0.000000
0.244346 -0.232086 0.000000
0.274293 -0.313471 0.000000
0.257041 0.111799 0.000000
0.241308 -0.264191 0.000000
0.238878 -0.095067 0.000000
0.279886 -0.016633 0.000000
0.230138 0.052005 0.000000
0.202420 0.247105 0.000000
0.244502 -0.153615 0.000000
0.258922 -0.250564 0.000000
0.243228 -0.451699 0.000000
0.260693 0.462646 0.000000
0.216333 -0.513947 0.000000
0.234085 -0.023941 0.000000
0.239464 -0.466306 0.000000
0.287219 -0.177255 0.000000
0.274741 0.223655 0.000000
0.194735 -0.035401 0.000000
0.270154 0.156200 0.000000
0.234279 0.149419 0.000000
0.204595 -0.215997 0.000000
0.275419 -0.166898 0.000000
0.255241 0.057679 0.000000
0.266014 0.234174 0.000000
0.209179 -0.430468 0.000000
0.171020 0.122344 0.000000
0.230411 -0.222478 0.000000
0.263760 0.463584 0.000000
0.259822 -0.244217 0.000000
0.300330 -0.083441 0.000000
0.237997 0.366998 0.000000
0.315254 -0.202568 0.000000
0.237385 -0.303479 0.000000
0.238031 -0.331294 0.000000
0.223572 -0.494396 0.000000
0.237635 -0.007574 0.000000
0.227871 0.081150 0.000000
0.245379 0.325378 0.000000
0.249626 -0.414617 0.000000
0.222449 0.188314 0.000000
0.226769 0.202304 0.000000
0.243189 -0.647772 0.000000
0.244086 -0.027605 0.000000
0.220917 0.685299 0.000000
0.234292 -0.266555 0.000000
0.271624 -0.145259 0.000000
0.279812 0.764737 0.000000
0.203700 0.419461 0.000000
0.222290 0.586684 0.000000
0.243901 -0.111579 0.000000
0.307064 0.801549 0.000000
0.251921 0.198368 0.000000
0.215169 -0.244427 0.000000
0.267650 0.332164 0.000000
0.276676 -0.117281 0.000000
0.243188 -0.409098 0.000000
0.223234 0.074203 0.000000
0.231066 0.293773 0.000000
0.244228 0.045080 0.000000
0.211548 0.254914 0.000000
0.260387 -0.039081 0.000000
0.277040 0.043314 0.000000
0.258098 0.148714 0.000000
0.282299 0.023805 0.000000
0.213403 0.032754 0.000000
0.202399 0.051149 0.000000
0.279187 -0.343017 0.000000
-0.022981 -0.616967 0.000000
-0.022981 -0.616967 0.000000
-0.068307 -0.744397 0.000000
-0.101245 -0.501753 0.000000
0.011127 -0.277938 0.000000
-0.041492 -0.719782 0.000000
-0.077365 -0.407399 0.000000
0.071121 -0.820604 0.000000
0.001705 -0.170699 0.000000
0.000652 -0.587523 0.000000
-0.038772 -0.429080 0.000000
0.069965 -0.764819 0.000000
-0.063625 -0.561537 0.000000
-0.089723 -0.295658 0.000000
0.025889 -0.576545 0.000000
-0.101368 -0.738932 0.000000
0.081473 -0.548282 0.000000
0.031981 -0.357340 0.000000
0.079645 -0.671857 0.000000
0.102832 -0.495682 0.000000
0.024930 -0.412390 0.000000
-0.073983 -0.734654 0.000000
-0.088199 -0.410762 0.000000
0.006134 -0.247804 0.000000
-0.104825 -0.599427 0.000000
[...]
POINT_DATA 1002
SCALARS domain float 1
LOOKUP_TABLE default
0.000000
0.000000
0.000000
0.000000
0.000000
0.000000
0.000000
0.000000
0.000000
0.000000
0.000000
0.000000
0.000000
0.000000
0.000000
0.000000
0.000000
0.000000
0.000000
0.000000
0.000000
0.000000
0.000000
0.000000
0.000000
0.000000
0.000000
0.000000
0.000000
0.000000
0.000000
0.000000
0.000000
0.000000
0.000000
0.000000
0.000000
0.000000
0.000000
0.000000
0.000000
0.000000
0.000000
0.000000
0.000000
0.000000
0.000000
0.000000
0.000000
0.000000
0.000000
0.000000
0.000000
0.000000
0.000000
0.000000
0.000000
0.000000
0.000000
0.000000
0.000000
0.000000
0.000000
0.000000
0.000000
0.000000
0.000000
0.000000
0.000000
0.000000
0.000000
0.000000
0.000000
0.000000
0.000000
0.000000
0.000000
0.000000
0.000000
0.000000
0.000000
0.000000
0.000000
0.000000
0.000000
0.000000
0.000000
0.000000
0.000000
0.000000
0.000000
0.000000
0.000000
0.000000
0.000000
0.000000
0.000000
0.000000
0.000000
0.000000
0.000000
0.000000
0.000000
0.000000
0.000000
0.000000
0.000000
0.000000
0.000000
0.000000
0.000000
0.000000
0.000000
0.000000
0.000000
0.000000
0.000000
0.000000
0.000000
0.000000
0.000000
0.000000
0.000000
0.000000
0.000000
0.000000
0.000000
0.000000
0.000000
0.000000
0.000000
0.000000
0.000000
0.000000
0.000000
0.000000
0.000000
0.000000
0.000000
0.000000
0.000000
0.000000
0.000000
0.000000
0.000000
0.000000
0.000000
0.000000
0.000000
0.000000
0.000000
0.000000
0.000000
0.000000
0.000000
0.000000
0.000000
0.000000
0.000000
0.000000
0.000000
0.000000
0.000000
0.000000
0.000000
0.000000
0.000000
0.000000
0.000000
0.000000
0.000000
0.000000
0.000000
0.000000
0.000000
0.000000
0.000000
0.000000
0.000000
0.000000
0.000000
0.000000
0.000000
0.000000
0.000000
0.000000
0.000000
0.000000
0.000000
0.000000
0.000000
0.000000
0.000000
0.000000
0.000000
0.000000
0.000000
0.000000
0.000000
0.000000
0.000000
0.000000
0.000000
0.000000
0.000000
0.000000
0.000000
0.000000
0.000000
0.000000
0.000000
0.000000
0.000000
0.000000
0.000000
0.000000
0.000000
0.000000
0.000000
0.000000
0.000000
0.000000
0.000000
0.000000
0.000000
0.000000
0.000000
0.000000
0.000000
0.000000
0.000000
0.000000
0.000000
0.000000
0.000000
0.000000
0.000000
0.000000
0.000000
0.000000
0.000000
0.000000
0.000000
0.000000
0.000000
0.000000
0.000000
0.000000
0.000000
0.000000
0.000000
0.000000
0.000000
0.000000
0.000000
0.000000
0.000000
0.000000
0.000000
0.000000
0.000000
0.000000
0.000000
0.000000
0.000000
0.000000
0.000000
0.000000
0.000000
0.000000
0.000000
0.000000
0.000000
0.000000
0.000000
0.000000
0.000000
0.000000
0.000000
0.000000
0.000000
0.000000
0.000000
0.000000
0.000000
0.000000
0.000000
0.000000
0.000000
0.000000
0.000000
0.000000
0.000000
0.000000
0.000000
0.000000
0.000000
0.000000
0.000000
0.000000
0.000000
0.000000
0.000000
0.000000
0.000000
0.000000
0.000000
0.000000
0.000000
0.000000
0.000000
0.000000
0.000000
0.000000
0.000000
0.000000
0.000000
0.000000
0.000000
0.000000
0.000000
0.000000
0.000000
0.000000
0.000000
0.000000
0.000000
0.000000
0.000000
0.000000
0.000000
0.000000
0.000000
0.000000
1.000000
1.000000
1.000000
1.000000
1.000000
1.000000
1.000000
1.000000
1.000000
1.000000
1.000000
1.000000
1.000000
1.000000
1.000000
1.000000
1.000000
1.000000
1.000000
1.000000
1.000000
1.000000
1.000000
1.000000
1.000000
1.000000
1.000000
1.000000
1.000000
1.000000
1.000000
1.000000
1.000000
1.000000
1.000000
1.000000
1.000000
1.000000
1.000000
1.000000
1.000000
1.000000
1.000000
1.000000
1.000000
1.000000
1.000000
1.000000
1.000000
1.000000
1.000000
1.000000
1.000000
1.000000
1.000000
1.000000
1.000000
1.000000
1.000000
1.000000
1.000000
1.000000
1.000000
1.000000
1.000000
1.000000
1.000000
1.000000
1.000000
1.000000
1.000000
1.000000
1.000000
1.000000
1.000000
1.000000
1.000000
1.000000
1.000000
1.000000
1.000000
1.000000
1.000000
1.000000
1.000000
1.000000
1.000000
1.000000
1.000000
1.000000
1.000000
1.000000
1.000000
1.000000
1.000000
1.000000
1.000000
1.000000
1.000000
1.000000
1.000000
1.000000
1.000000
1.000000
1.000000
1.000000
1.000000
1.000000
1.000000
1.000000
1.000000
1.000000
1.000000
1.000000
1.000000
1.000000
1.000000
1.000000
1.000000
1.000000
1.000000
1.000000
1.000000
1.000000
1.000000
1.000000
1.000000
1.000000
1.000000
1.000000
1.000000
1.000000
1.000000
1.000000
1.000000
1.000000
1.000000
1.000000
1.000000
1.000000
1.000000
1.000000
1.000000
1.000000
1.000000
1.000000
1.000000
1.000000
1.000000
1.000000
1.000000
1.000000
1.000000
1.000000
1.000000
1.000000
1.000000
1.000000
1.000000
1.000000
1.000000
1.000000
1.000000
1.000000
1.000000
1.000000
1.000000
1.000000
1.000000
1.000000
1.000000
1.000000
1.000000
1.000000
1.000000
1.000000
1.000000
1.000000
1.000000
1.000000
1.000000
1.000000
1.000000
1.000000
1.000000
1.000000
1.000000
1.000000
1.000000
1.000000
1.000000
1.000000
1.000000
1.000000
1.000000
1.000000
1.000000
1.000000
1.000000
1.000000
1.000000
1.000000
1.000000
1.000000
1.000000
1.000000
1.000000
1.000000
1.000000
1.000000
1.000000
1.000000
1.000000
1.000000
1.000000
1.000000
1.000000
1.000000
1.000000
1.000000
1.000000
1.000000
1.000000
1.000000
1.000000
1.000000
1.000000
1.000000
1.000000
1.000000
1.000000
1.000000
1.000000
1.000000
1.000000
1.000000
1.000000
1.000000
1.000000
1.000000
1.000000
1.000000
1.000000
1.000000
1.000000
1.000000
1.000000
1.000000
1.000000
1.000000
1.000000
1.000000
1.000000
1.000000
1.000000
1.000000
1.000000
1.000000
1.000000
1.000000
1.000000
1.000000
1.000000
1.000000
1.000000
1.000000
1.000000
1.000000
1.000000
1.000000
1.000000
1.000000
1.000000
1.000000
1.000000
1.000000
1.000000
1.000000
1.000000
1.000000
1.000000
1.000000
1.000000
1.000000
1.000000
1.000000
1.000000
1.000000
1.000000
1.000000
1.000000
1.000000
1.000000
1.000000
1.000000
1.000000
1.000000
1.000000
1.000000
1.000000
1.000000
1.000000
1.000000
1.000000
1.000000
1.000000
1.000000
1.000000
1.000000
1.000000
1.000000
1.000000
1.000000
1.000000
1.000000
1.000000
1.000000
1.000000
1.000000
1.000000
1.000000
1.000000
1.000000
1.000000
1.000000
1.000000
1.000000
1.000000
1.000000
1.000000
1.000000
1.000000
1.000000
1.000000
2.000000
2.000000
2.000000
2.000000
2.000000
2.000000
2.000000
2.000000
2.000000
2.000000
2.000000
2.000000
2.000000
2.000000
2.000000
2.000000
2.000000
2.000000
2.000000
2.000000
2.000000
2.000000
2.000000
2.000000
2.000000
2.000000
2.000000
2.000000
2.000000
2.000000
2.000000
2.000000
2.000000
2.000000
2.000000
2.000000
2.000000
2.000000
2.000000
2.000000
2.000000
2.000000
2.000000
2.000000
2.000000
2.000000
2.000000
2.000000
2.000000
2.000000
2.000000
2.000000
2.000000
2.000000
2.000000
2.000000
2.000000
2.000000
2.000000
2.000000
2.000000
2.000000
2.000000
2.000000
2.000000
2.000000
2.000000
2.000000
2.000000
2.000000
2.000000
2.000000
2.000000
2.000000
2.000000
2.000000
2.000000
2.000000
2.000000
2.000000
2.000000
2.000000
2.000000
2.000000
2.000000
2.000000
2.000000
2.000000
2.000000
2.000000
2.000000
2.000000
2.000000
2.000000
2.000000
2.000000
2.000000
2.000000
2.000000
2.000000
2.000000
2.000000
2.000000
2.000000
2.000000
2.000000
2.000000
2.000000
2.000000
2.000000
2.000000
2.000000
2.000000
2.000000
2.000000
2.000000
2.000000
2.000000
2.000000
2.000000
2.000000
2.000000
2.000000
2.000000
2.000000
2.000000
2.000000
2.000000
2.000000
2.000000
2.000000
2.000000
2.000000
2.000000
2.000000
2.000000
2.000000
2.000000
2.000000
2.000000
2.000000
2.000000
2.000000
2.000000
2.000000
2.000000
2.000000
2.000000
2.000000
2.000000
2.000000
2.000000
2.000000
2.000000
2.000000
2.000000
2.000000
2.000000
2.000000
2.000000
2.000000
2.000000
2.000000
2.000000
2.000000
2.000000
2.000000
2.000000
2.000000
2.000000
2.000000
2.000000
2.000000
2.000000
2.000000
2.000000
2.000000
2.000000
2.000000
2.000000
2.000000
2.000000
2.000000
2.000000
2.000000
2.000000
2.000000
2.000000
2.000000
2.000000
2.000000
2.000000
2.000000
2.000000
2.000000
2.000000
2.000000
2.000000
2.000000
2.000000
2.000000
2.000000
2.000000
2.000000
2.000000
2.000000
2.000000
2.000000
2.000000
2.000000
2.000000
2.000000
2.000000
2.000000
2.000000
2.000000
2.000000
2.000000
2.000000
2.000000
2.000000
2.000000
2.000000
2.000000
2.000000
2.000000
2.000000
2.000000
2.000000
2.000000
2.000000
2.000000
2.000000
2.000000
2.000000
2.000000
2.000000
2.000000
2.000000
2.000000
2.000000
2.000000
2.000000
2.000000
2.000000
2.000000
2.000000
2.000000
2.000000
2.000000
2.000000
2.000000
2.000000
2.000000
2.000000
2.000000
2.000000
2.000000
2.000000
2.000000
2.000000
2.000000
2.000000
2.000000
2.000000
2.000000
2.000000
2.000000
2.000000
2.000000
2.000000
2.000000
2.000000
2.000000
2.000000
2.000000
2.000000
2.000000
2.000000
2.000000
2.000000
2.000000
2.000000
2.000000
2.000000
2.000000
2.000000
2.000000
2.000000
2.000000
2.000000
2.000000
2.000000
2.000000
2.000000
2.000000
2.000000
2.000000
2.000000
2.000000
2.000000
2.000000
2.000000
2.000000
2.000000
2.000000
2.000000
2.000000
2.000000
2.000000
2.000000
2.000000
2.000000
2.000000
2.000000
2.000000
2.000000
2.000000
2.000000
2.000000
2.000000
2.000000
2.000000
2.000000
2.000000
2.000000
2.000000
2.000000
2.000000
2.000000
2.000000
2.000000
2.000000
2.000000
SCALARS gamma_0 float 1
LOOKUP_TABLE default
1.000004
0.999990
1.000010
0.997691
0.999972
1.000032
0.999991
0.999989
1.000011
1.000000
0.999991
1.000009
0.999995
1.000003
0.999997
0.999985
1.000045
0.999960
0.984684
0.962734
0.992102
0.996287
0.998529
0.999983
1.000021
0.999990
1.000001
0.999996
1.000010
0.999667
0.999978
0.999435
0.992960
0.999984
0.999562
1.000019
0.991885
0.999992
1.000012
0.999991
1.000023
0.999975
0.996274
0.999991
0.996169
0.999980
1.000029
0.999977
1.000013
0.998703
0.999999
0.998049
0.996041
0.999985
1.000015
0.999989
1.000013
0.999978
1.000042
0.999949
1.000031
0.999993
0.997470
1.000019
0.999970
1.000017
0.999980
1.000044
1.000009
0.999885
1.000114
0.999976
0.995067
1.000007
0.999120
0.994974
1.000020
1.000010
0.999986
0.997782
0.999999
1.000001
1.000001
1.000001
0.999999
0.999999
0.999877
0.999976
1.000024
0.999984
1.000008
0.999992
1.000027
0.999954
1.000038
0.999982
1.000010
0.999996
0.999987
1.000022
0.999952
1.000017
0.992753
0.999987
1.000031
0.999624
1.000014
0.999987
0.998065
0.999213
1.000023
0.999991
0.999993
1.000016
0.999976
1.000023
0.999988
0.997718
1.000028
0.999977
0.999999
1.000006
1.000003
1.000001
0.996627
0.999994
0.999985
1.000098
0.999865
1.000058
1.000019
0.999984
0.996564
0.999890
1.000086
1.000003
0.999965
1.000000
1.000045
0.998936
1.000041
0.999992
0.999986
1.000003
1.000012
0.999994
0.991254
0.999984
1.000043
0.999959
1.000027
0.999985
1.000011
0.999982
1.000027
0.999972
1.000018
0.999987
1.000024
0.999983
0.995610
0.999949
1.000051
0.999976
1.000034
0.999957
1.000018
1.000000
1.000005
1.000016
0.999945
1.000048
0.999989
0.999996
0.999998
1.000006
0.999202
1.000004
1.000008
0.999379
1.000006
1.000000
0.999990
1.000012
1.000000
0.999401
1.000009
0.999980
1.000039
0.998739
0.997957
0.999993
1.000009
0.999987
1.000019
0.999983
0.999990
1.000047
0.999941
1.000042
0.999970
1.000025
0.999802
0.999539
0.999991
1.000039
0.999948
1.000016
1.000026
0.999968
1.000003
1.000027
0.999978
1.000003
0.999784
0.996010
0.999959
1.000025
1.000047
0.989694
0.990841
0.983263
0.964701
0.938861
0.952147
0.990459
1.000009
0.999998
1.000027
0.999966
0.991318
1.000012
0.994783
0.999918
1.000006
0.999987
1.000021
0.999990
0.993189
0.999985
1.000042
0.999962
0.993791
0.999946
1.000040
0.999995
1.000009
0.999974
1.000016
1.000012
0.999969
1.000036
0.999970
1.000014
0.999999
1.000007
0.999980
1.000008
1.000016
0.999657
1.000030
0.999988
0.999915
0.997775
1.000008
0.999994
1.000011
0.999979
1.000023
0.999982
1.000009
0.999997
1.000010
0.999983
1.000005
1.000014
0.999985
0.999505
0.999849
1.000022
0.997010
0.999986
1.000001
1.000012
0.999987
1.000011
0.999991
1.000000
1.000005
1.000014
0.999964
1.000018
1.000035
0.999936
1.000035
1.000017
0.999961
1.000027
0.999990
1.000006
0.999245
1.000007
1.000026
0.999962
0.997241
0.999969
0.994838
0.988880
1.000006
0.993564
1.000050
0.999976
0.978517
0.983266
0.997141
0.995476
0.986194
0.999984
1.000050
0.999956
1.000037
0.999960
1.000035
0.999972
1.000027
0.999977
1.000011
1.000004
0.999989
1.000007
0.999977
1.000071
0.999933
0.988446
0.000000
0.000000
0.000000
0.002313
0.000000
0.000000
0.000000
0.000000
0.000000
0.000000
0.000000
0.000000
0.000000
0.000000
0.000000
0.000000
0.000000
0.000000
0.015333
0.023039
0.000000
0.000000
0.000000
0.000000
0.000000
0.000000
0.000000
0.000000
0.000000
0.000000
0.000000
0.000570
0.005079
0.000000
0.000439
0.000000
0.008104
0.000000
0.000000
0.000000
0.000000
0.000000
0.000000
0.000000
0.002092
0.000000
0.000000
0.000000
0.000000
0.001294
0.000000
0.001949
0.003966
0.000000
0.000000
0.000000
0.000000
0.000000
0.000000
0.000000
0.000000
0.000000
0.002526
0.000000
0.000000
0.000000
0.000000
0.000000
0.000000
0.000000
0.000000
0.000000
0.000000
0.000000
0.000000
0.000000
0.000000
0.000000
0.000000
0.000000
0.000000
0.000000
0.000000
0.000000
0.000000
0.000000
0.000000
0.000000
0.000000
0.000000
0.000000
0.000000
0.000000
0.000000
0.000000
0.000000
0.000000
0.000000
0.000000
0.000000
0.000000
0.000000
0.007233
0.000000
0.000000
0.000000
0.000000
0.000000
0.001944
0.000000
0.000000
0.000000
0.000000
0.000000
0.000000
0.000000
0.000000
0.002275
0.000000
0.000000
0.000000
0.000000
0.000000
0.000000
0.000000
0.000000
0.000000
0.000000
0.000000
0.000000
0.000000
0.000000
0.000000
0.000000
0.000000
0.000000
0.000000
0.000000
0.000000
0.001009
0.000000
0.000000
0.000000
0.000000
0.000000
0.000000
0.008741
0.000000
0.000000
0.000000
0.000000
0.000000
0.000000
0.000000
0.000000
0.000000
0.000000
0.000000
0.000000
0.000000
0.004085
0.000000
0.000000
0.000000
0.000000
0.000000
0.000000
0.000000
0.000000
0.000000
0.000000
0.000000
0.000000
0.000000
0.000000
0.000000
0.000791
0.000000
0.000000
0.000000
0.000000
0.000000
0.000000
0.000000
0.000000
0.000000
0.000000
0.000000
0.000000
0.001229
0.002058
0.000000
0.000000
0.000000
0.000000
0.000000
0.000000
0.000000
0.000000
0.000000
0.000000
0.000000
0.000000
0.000000
0.000000
0.000000
0.000000
0.000000
0.000000
0.000000
0.000000
0.000000
0.000000
0.000000
0.000000
0.000000
0.000000
0.000000
0.000000
0.000000
0.009197
0.016694
0.035362
0.061080
0.045416
0.009524
0.000000
0.000000
0.000000
0.000000
0.000000
0.000000
0.000000
0.000091
0.000000
0.000000
0.000000
0.000000
0.006806
0.000000
0.000000
0.000000
0.000000
0.000000
0.000000
0.000000
0.000000
0.000000
0.000000
0.000000
0.000000
0.000000
0.000000
0.000000
0.000000
0.000000
0.000000
0.000000
0.000000
0.000314
0.000000
0.000000
0.000082
0.000000
0.000000
0.000000
0.000000
0.000000
0.000000
0.000000
0.000000
0.000000
0.000000
0.000000
0.000000
0.000000
0.000000
0.000000
0.000000
0.000000
0.001143
0.000000
0.000000
0.000000
0.000000
0.000000
0.000000
0.000000
0.000000
0.000000
0.000000
0.000000
0.000000
0.000000
0.000000
0.000000
0.000000
0.000000
0.000000
0.000000
0.000000
0.000000
0.000000
0.000000
0.002788
0.000000
0.005181
0.011113
0.000000
0.000000
0.000000
0.000000
0.010050
0.006378
0.000000
0.000000
0.000332
0.000000
0.000000
0.000000
0.000000
0.000000
0.000000
0.000000
0.000000
0.000000
0.000000
0.000000
0.000000
0.000000
0.000000
0.000000
0.000000
0.005275
0.000000
0.000000
0.000000
0.000000
0.000000
0.000000
0.000000
0.000000
0.000000
0.000000
0.000000
0.000000
0.000000
0.000000
0.000000
0.000000
0.000000
0.000000
0.000000
0.014217
0.007888
0.003735
0.001463
0.000000
0.000000
0.000000
0.000000
0.000000
0.000000
0.000342
0.000000
0.000000
0.001969
0.000000
0.000000
0.000000
0.000000
0.000000
0.000000
0.000000
0.000000
0.000000
0.003740
0.000000
0.001748
0.000000
0.000000
0.000000
0.000000
0.000000
0.000000
0.000000
0.000000
0.000000
0.000000
0.000000
0.000000
0.000000
0.000000
0.000000
0.000000
0.000000
0.000000
0.000000
0.000000
0.000000
0.000000
0.000000
0.000000
0.000000
0.000000
0.000000
0.004910
0.000000
0.000908
0.004986
0.000000
0.000000
0.000000
0.002221
0.000000
0.000000
0.000000
0.000000
0.000000
0.000000
0.000133
0.000000
0.000000
0.000000
0.000000
0.000000
0.000000
0.000000
0.000000
0.000000
0.000000
0.000000
0.000000
0.000000
0.000033
0.000000
0.000000
0.000000
0.000000
0.000355
0.000000
0.000000
0.000000
0.000769
0.000000
0.000000
0.000000
0.000000
0.000000
0.000000
0.000000
0.000000
0.000000
0.000000
0.000000
0.000000
0.000000
0.000000
0.003367
0.000000
0.000000
0.000000
0.000000
0.000000
0.000000
0.000000
0.003477
0.000000
0.000000
0.000000
0.000000
0.000000
0.000000
0.000000
0.000000
0.000000
0.000000
0.000000
0.000000
0.000000
0.000000
0.000000
0.000000
0.000000
0.000000
0.000000
0.000000
0.000000
0.000000
0.000000
0.000000
0.000000
0.000000
0.000000
0.000323
0.000000
0.000000
0.000000
0.000000
0.000000
0.000000
0.000000
0.000000
0.000000
0.000000
0.000000
0.000000
0.000000
0.000000
0.000000
0.000000
0.000000
0.000000
0.000610
0.000000
0.000000
0.000000
0.000000
0.000000
0.000589
0.000000
0.000000
0.000000
0.000000
0.000000
0.000000
0.000000
0.000000
0.000000
0.000000
0.000000
0.000000
0.000000
0.000000
0.000000
0.000000
0.000185
0.000464
0.000000
0.000000
0.000000
0.000000
0.000000
0.000000
0.000000
0.000000
0.000000
0.000000
0.000216
0.003999
0.000000
0.000000
0.000000
0.010242
0.000000
0.000000
0.000000
0.000000
0.002466
0.000000
0.000000
0.000000
0.000000
0.000000
0.008690
0.000000
0.005198
0.000000
0.000000
0.000000
0.000000
0.000000
0.000000
0.000000
0.000000
0.000009
0.006239
0.000000
0.000000
0.000000
0.000000
0.000000
0.000000
0.000000
0.000000
0.000000
0.000000
0.000000
0.000000
0.000000
0.000000
0.000000
0.000000
0.000000
0.000000
0.000000
0.000000
0.002221
0.000000
0.000000
0.000000
0.000000
0.000000
0.000000
0.000000
0.000000
0.000000
0.000000
0.000000
0.000000
0.000000
0.000503
0.000133
0.000000
0.001847
0.000000
0.000000
0.000000
0.000000
0.000000
0.000000
0.000000
0.000000
0.000000
0.000000
0.000000
0.000000
0.000000
0.000000
0.000000
0.000000
0.000000
0.000000
0.000000
0.000743
0.000000
0.000000
0.000000
0.000000
0.000000
0.000000
0.000000
0.000000
0.006410
0.000000
0.000000
0.011411
0.010402
0.002769
0.004616
0.013432
0.000000
0.000000
0.000000
0.000000
0.000000
0.000000
0.000000
0.000000
0.000000
0.000000
0.000000
0.000000
0.000000
0.000000
0.000000
0.000000
0.006292
SCALARS gamma_1 float 1
LOOKUP_TABLE default
0.997869
1.000000
1.000012
0.997690
0.999971
1.000032
0.999991
0.999989
1.000011
1.000000
0.999991
1.000009
0.999995
1.000003
0.999997
0.999985
1.000045
0.999960
0.984684
0.962734
0.992102
0.996287
0.998529
0.999983
1.000021
0.999990
1.000001
0.999996
1.000010
0.999667
0.999978
0.999435
0.992960
0.999984
0.999562
1.000019
0.991885
0.999992
1.000012
0.999991
1.000023
0.999975
0.996274
0.999991
0.996169
0.999980
1.000029
0.999977
1.000013
0.998703
0.999999
0.998049
0.996041
0.999985
1.000015
0.999989
1.000013
0.999978
1.000042
0.999949
1.000031
0.999993
0.997470
1.000019
0.999970
1.000017
0.999980
1.000044
1.000009
0.999885
1.000114
0.999976
0.995067
1.000007
0.999120
0.994974
1.000020
1.000010
0.999986
0.997782
0.999999
1.000001
1.000001
1.000001
0.999999
0.999999
0.999877
0.999976
1.000024
0.999984
1.000008
0.999992
1.000027
0.999954
1.000038
0.999982
1.000010
0.999996
0.999987
1.000022
0.999952
1.000017
0.992753
0.999987
1.000031
0.999624
1.000014
0.999987
0.998065
0.999213
1.000023
0.999991
0.999993
1.000016
0.999976
1.000023
0.999988
0.997718
1.000028
0.999977
0.999999
1.000006
1.000003
1.000001
0.996627
0.999994
0.999985
1.000098
0.999865
1.000058
1.000019
0.999984
0.996564
0.999890
1.000086
1.000003
0.999965
1.000000
1.000045
0.998936
1.000041
0.999992
0.999986
1.000003
1.000013
0.999994
0.991254
0.999984
1.000043
0.999959
1.000027
0.999985
1.000011
0.999982
1.000027
0.999972
1.000018
0.999987
1.000024
0.999983
0.995609
0.999949
1.000051
0.999976
1.000034
0.999957
1.000018
1.000000
1.000005
1.000016
0.999945
1.000048
0.999989
0.999996
0.999998
1.000006
0.999202
1.000004
1.000008
0.999379
1.000006
1.000000
0.999990
1.000012
1.000000
0.999401
1.000009
0.999980
1.000039
0.998739
0.997957
0.999993
1.000009
0.999987
1.000019
0.999983
0.999990
1.000047
0.999941
1.000042
0.999970